<VTKFile type="UnstructuredGrid" version="1.0" byte_order="LittleEndian" header_type="UInt64">
  <UnstructuredGrid>
    <Piece NumberOfPoints="65" NumberOfCells="64">
      <PointData>
      </PointData>
      <CellData Scalars="PID">
        <DataArray type="Float32" Name="PID" format="ascii" RangeMin="0" RangeMax="0">
          0 0 0 0 0 0
          0 0 0 0 0 0
          0 0 0 0 0 0
          0 0 0 0 0 0
          0 0 0 0 0 0
          0 0 0 0 0 0
          0 0 0 0 0 0
          0 0 0 0 0 0
          0 0 0 0 0 0
          0 0 0 0 0 0
          0 0 0 0
        </DataArray>
      </CellData>
      <Points>
        <DataArray type="Float32" Name="Points" NumberOfComponents="3" format="ascii" RangeMin="1.3907121644" RangeMax="1.4434911154">
          0.5091984272 -0.017267728224 1.349480629 0.50962680578 -0.0096975471824 1.350123167
          0.50919759274 -0.017280682921 1.3494794369 0.50974088907 -0.0067815864459 1.3502943516
          0.50980490446 -0.0015900633298 1.3503904343 0.50984609127 0.0015685197432 1.3504521847
          0.50974100828 0.0066571724601 1.3502944708 0.50965154171 0.0096062123775 1.3501603603
          0.50957781076 0.0110220965 1.3500497341 0.50910425186 0.01820528321 1.349339366
          0.49534928799 -0.072127267718 1.3287068605 0.49767923355 -0.06704107672 1.3322018385
          0.49508196115 -0.0726685673 1.3283059597 0.49217844009 -0.078094393015 1.3239506483
          0.49266555905 -0.077241145074 1.324681282 0.48908925056 -0.083076275885 1.319316864
          0.48985081911 -0.081912741065 1.3204592466 0.50849431753 -0.024017114192 1.3484245539
          0.50919723511 -0.017284819856 1.3494788408 0.49785929918 -0.066618300974 1.3324719667
          0.49990004301 -0.061452642083 1.3355330229 0.50011175871 -0.060875050724 1.3358505964
          0.5021918416 -0.054720506072 1.3389707804 0.50404268503 -0.048257544637 1.3417470455
          0.50405907631 -0.048193890601 1.3417716026 0.5021109581 -0.054981913418 1.3388494253
          0.50558465719 -0.041782408953 1.3440599442 0.50568419695 -0.041323717684 1.3442093134
          0.5066768527 -0.036357715726 1.3456982374 0.50677293539 -0.035818241537 1.3458423615
          0.48696687818 -0.086111567914 1.3161332607 0.50820636749 -0.026263602078 1.3479925394
          0.50747865438 -0.031347770244 1.3469009399 0.50833719969 0.02569713816 1.3481887579
          0.50756365061 0.031334105879 1.3470284939 0.50900554657 0.019463004544 1.349191308
          0.50846886635 0.024595696479 1.3483862877 0.48912349343 0.083593346179 1.3193682432
          0.48760011792 0.085822843015 1.3170831203 0.49078589678 0.080977268517 1.3218618631
          0.4965249002 0.070123404264 1.3304703236 0.49467346072 0.07398737222 1.327693224
          0.49380132556 0.075676128268 1.3263850212 0.4919680953 0.078992247581 1.3236351013
          0.49886870384 0.064578250051 1.3339860439 0.49721798301 0.068571962416 1.3315099478
          0.48134711385 -0.092935331166 1.3077036142 0.48236581683 -0.091821305454 1.3092317581
          0.48421800137 -0.089652299881 1.3120100498 0.48575690389 -0.087729044259 1.3143184185
          0.47845757008 -0.09589330107 1.3033692837 0.47824811935 -0.096093513072 1.3030551672
          0.50746309757 0.032004229724 1.3468776941 0.5064406991 0.037884257734 1.3453440666
          0.48629400134 0.087614670396 1.3151240349 0.49949678779 0.062947265804 1.3349281549
          0.50111657381 0.058425843716 1.3373578787 0.50635021925 0.038362272084 1.3452082872
          0.50507348776 0.044348467141 1.34329319 0.50488096476 0.045197773725 1.3430044651
          0.50344842672 0.050780586898 1.3408555984 0.50312203169 0.051955718547 1.3403660059
          0.50157171488 0.057039089501 1.3380405903 0.47785878181 -0.096437461674 1.3024711609
          0.48487594724 0.089428812265 1.3129968643
        </DataArray>
      </Points>
      <Cells>
        <DataArray type="Int64" Name="connectivity" format="ascii" RangeMin="0" RangeMax="64">
          0 1 2 0 3 4
          1 3 4 5 5 6
          6 7 8 9 10 11
          12 10 13 14 15 16
          16 13 17 18 18 2
          7 8 19 20 11 19
          20 21 22 23 23 24
          25 22 21 25 26 27
          24 26 28 29 14 12
          30 15 31 17 32 31
          29 32 33 34 35 36
          9 35 27 28 37 38
          39 37 40 41 41 42
          42 43 43 39 44 45
          45 40 46 47 47 48
          48 49 49 30 50 46
          51 50 51 63 36 33
          52 53 38 54 55 44
          56 55 54 64 34 52
          53 57 57 58 58 59
          60 61 59 60 62 56
          61 62
        </DataArray>
        <DataArray type="Int64" Name="offsets" format="ascii" RangeMin="2" RangeMax="128">
          2 4 6 8 10 12
          14 16 18 20 22 24
          26 28 30 32 34 36
          38 40 42 44 46 48
          50 52 54 56 58 60
          62 64 66 68 70 72
          74 76 78 80 82 84
          86 88 90 92 94 96
          98 100 102 104 106 108
          110 112 114 116 118 120
          122 124 126 128
        </DataArray>
        <DataArray type="UInt8" Name="types" format="ascii" RangeMin="3" RangeMax="3">
          3 3 3 3 3 3
          3 3 3 3 3 3
          3 3 3 3 3 3
          3 3 3 3 3 3
          3 3 3 3 3 3
          3 3 3 3 3 3
          3 3 3 3 3 3
          3 3 3 3 3 3
          3 3 3 3 3 3
          3 3 3 3 3 3
          3 3 3 3
        </DataArray>
      </Cells>
    </Piece>
  </UnstructuredGrid>
</VTKFile>
