<?xml version="1.0"?>
<VTKFile type="UnstructuredGrid" version="0.1" byte_order="BigEndian">
  <UnstructuredGrid>
    <Piece NumberOfCells="35267" NumberOfPoints="39011">
      <CellData Scalars="Data">
      <DataArray type="Float64" Name="Data" NumberOfComponents="1" format="ascii">
          0.899437 0.874218 0.881616 0.855872 
          0.900435 0.875245 0.882635 0.856921 
          0.849400 0.825019 0.830506 0.805554 
          0.850457 0.826108 0.831587 0.806668 
          0.864558 0.838290 0.848308 0.821521 
          0.865596 0.839361 0.849366 0.822614 
          0.812375 0.786848 0.795060 0.768958 
          0.813481 0.787989 0.796189 0.770126 
          0.902515 0.877385 0.884756 0.859107 
          0.905669 0.880629 0.887973 0.862419 
          0.852659 0.828374 0.833839 0.808989 
          0.855997 0.831809 0.837252 0.812507 
          0.867760 0.841592 0.851571 0.824890 
          0.871040 0.844974 0.854913 0.828340 
          0.815782 0.790365 0.798540 0.772556 
          0.819270 0.793965 0.802104 0.776239 
          0.801116 0.777734 0.781055 0.757053 
          0.802237 0.778888 0.782204 0.758239 
          0.754921 0.732731 0.733598 0.710742 
          0.756110 0.733956 0.734821 0.712005 
          0.761748 0.737118 0.743254 0.717990 
          0.762926 0.738336 0.744462 0.719240 
          0.713007 0.689469 0.693214 0.668980 
          0.714266 0.690771 0.694508 0.670322 
          0.804570 0.781291 0.784598 0.760708 
          0.808107 0.784933 0.788224 0.764447 
          0.758586 0.736506 0.737369 0.714634 
          0.762336 0.740368 0.741226 0.718613 
          0.765380 0.740871 0.746976 0.721842 
          0.769097 0.744710 0.750784 0.725782 
          0.716886 0.693480 0.697203 0.673113 
          0.720853 0.697580 0.701281 0.677336 
          0.832914 0.805615 0.818424 0.790625 
          0.833992 0.806730 0.819521 0.791761 
          0.778614 0.751942 0.763094 0.735859 
          0.779767 0.753135 0.764270 0.737079 
          0.804888 0.776604 0.792353 0.763605 
          0.806003 0.777760 0.793486 0.764781 
          0.748557 0.720773 0.735062 0.706748 
          0.749756 0.722019 0.736284 0.708018 
          0.836237 0.809051 0.821806 0.794126 
          0.839640 0.812568 0.825269 0.797708 
          0.782168 0.755621 0.766720 0.739618 
          0.785805 0.759385 0.770430 0.743464 
          0.808326 0.780167 0.795845 0.767229 
          0.811846 0.783814 0.799420 0.770937 
          0.752253 0.724611 0.738826 0.710662 
          0.756034 0.728536 0.742675 0.714663 
          0.725635 0.699735 0.708956 0.682423 
          0.726872 0.701017 0.710222 0.683738 
          0.674288 0.649349 0.656306 0.630655 
          0.675619 0.650731 0.657673 0.632078 
          0.693285 0.666128 0.678692 0.650927 
          0.694580 0.667476 0.680014 0.652305 
          0.639346 0.612986 0.623491 0.596432 
          0.640749 0.614450 0.624931 0.597936 
          0.729447 0.703687 0.712857 0.686475 
          0.733346 0.707728 0.716846 0.690616 
          0.678389 0.653606 0.660518 0.635038 
          0.682579 0.657954 0.664821 0.639512 
          0.697274 0.670279 0.682766 0.655174 
          0.701352 0.674520 0.686930 0.659512 
          0.643669 0.617494 0.627924 0.601064 
          0.648084 0.622095 0.632449 0.605789 
          0.909886 0.884965 0.892274 0.866847 
          0.915152 0.890378 0.897643 0.872372 
          0.860457 0.836399 0.841812 0.817205 
          0.866023 0.842124 0.847500 0.823063 
          0.875423 0.849492 0.859379 0.832948 
          0.880895 0.855129 0.864952 0.838697 
          0.823930 0.798772 0.806862 0.781155 
          0.829741 0.804765 0.812795 0.787282 
          0.921447 0.896847 0.904060 0.878974 
          0.928752 0.904351 0.911505 0.886629 
          0.872673 0.848961 0.854294 0.830057 
          0.880383 0.856884 0.862168 0.838159 
          0.887433 0.861863 0.871610 0.845562 
          0.895016 0.869669 0.879329 0.853516 
          0.836679 0.811917 0.819877 0.794591 
          0.844717 0.820198 0.828078 0.803051 
          0.812830 0.789795 0.793066 0.769439 
          0.818720 0.795855 0.799101 0.775658 
          0.767341 0.745520 0.746372 0.723920 
          0.773577 0.751938 0.752782 0.730527 
          0.774058 0.749833 0.755865 0.731037 
          0.780241 0.756213 0.762195 0.737580 
          0.726144 0.703046 0.706719 0.682964 
          0.732731 0.709847 0.713485 0.689964 
          0.825751 0.803086 0.806303 0.783076 
          0.833895 0.811457 0.814641 0.791659 
          0.781014 0.759587 0.760423 0.738399 
          0.789620 0.768432 0.769259 0.747495 
          0.787615 0.763820 0.769743 0.745377 
          0.796149 0.772617 0.778473 0.754389 
          0.740579 0.717946 0.721542 0.698292 
          0.749648 0.727297 0.730848 0.707904 
          0.844187 0.817265 0.829894 0.802493 
          0.849860 0.823123 0.835664 0.808458 
          0.790662 0.764410 0.775383 0.748595 
          0.796715 0.770670 0.781555 0.754986 
          0.816548 0.788683 0.804195 0.775886 
          0.822411 0.794752 0.810147 0.782054 
          0.761081 0.733771 0.747812 0.720000 
          0.767368 0.740290 0.754210 0.726642 
          0.856635 0.830117 0.842554 0.815578 
          0.864488 0.838218 0.850536 0.823822 
          0.803939 0.778135 0.788917 0.762605 
          0.812301 0.786772 0.797437 0.771416 
          0.829411 0.801993 0.817252 0.789412 
          0.837519 0.810375 0.825480 0.797927 
          0.774865 0.748059 0.761836 0.734555 
          0.783538 0.757039 0.770656 0.743698 
          0.738547 0.713116 0.722167 0.696137 
          0.745024 0.719822 0.728789 0.703005 
          0.688165 0.663747 0.670554 0.645471 
          0.695112 0.670946 0.677682 0.652872 
          0.706789 0.680171 0.692480 0.665291 
          0.713554 0.687199 0.699384 0.672474 
          0.653964 0.628218 0.638473 0.612076 
          0.661270 0.635820 0.645954 0.619876 
          0.752744 0.727809 0.736679 0.711182 
          0.761669 0.737036 0.745796 0.720621 
          0.703379 0.679508 0.686160 0.661668 
          0.712922 0.689382 0.695939 0.671803 
          0.721611 0.695561 0.707602 0.681017 
          0.730916 0.705210 0.717089 0.690869 
          0.669956 0.644849 0.654843 0.629133 
          0.679968 0.655245 0.665083 0.639785 
          0.711222 0.690458 0.688547 0.667077 
          0.712484 0.691758 0.689850 0.668423 
          0.670508 0.651446 0.646406 0.626612 
          0.671846 0.652824 0.647794 0.628044 
          0.666566 0.644364 0.645350 0.622392 
          0.667912 0.645757 0.646740 0.623834 
          0.622940 0.602375 0.600183 0.578810 
          0.624380 0.603864 0.601678 0.580361 
          0.715111 0.694463 0.692563 0.671222 
          0.719087 0.698557 0.696668 0.675457 
          0.674631 0.655690 0.650682 0.631022 
          0.678845 0.660024 0.655050 0.635525 
          0.670714 0.648654 0.649633 0.626832 
          0.674952 0.653035 0.654008 0.631365 
          0.627376 0.606961 0.604787 0.583582 
          0.631905 0.611641 0.609483 0.588448 
          0.633353 0.616315 0.607780 0.590004 
          0.634770 0.617771 0.609257 0.591525 
          0.600421 0.585764 0.573381 0.558014 
          0.601915 0.587296 0.574945 0.559622 
          0.582761 0.564196 0.558369 0.538966 
          0.584300 0.565787 0.559976 0.540630 
          0.546789 0.530653 0.520716 0.503745 
          0.548430 0.532343 0.522438 0.505525 
          0.637717 0.620799 0.612326 0.594686 
          0.642173 0.625375 0.616966 0.599462 
          0.605022 0.590480 0.578197 0.562962 
          0.609717 0.595289 0.583108 0.568005 
          0.587500 0.569091 0.563314 0.544087 
          0.592334 0.574080 0.568354 0.549303 
          0.551838 0.535854 0.526015 0.509221 
          0.556982 0.541149 0.531408 0.514790 
          0.624977 0.601241 0.605531 0.581002 
          0.626412 0.602734 0.607013 0.582546 
          0.578221 0.556004 0.557146 0.534054 
          0.579773 0.557618 0.558757 0.535734 
          0.587106 0.561773 0.569801 0.543662 
          0.588635 0.563370 0.571375 0.545312 
          0.537064 0.513068 0.518089 0.493171 
          0.538734 0.514817 0.519820 0.494990 
          0.629399 0.605836 0.610094 0.585756 
          0.633913 0.610525 0.614751 0.590604 
          0.582998 0.560970 0.562102 0.539222 
          0.587869 0.566031 0.567153 0.544485 
          0.591811 0.566689 0.574647 0.548739 
          0.596610 0.571699 0.579588 0.553912 
          0.542203 0.518446 0.523415 0.498763 
          0.547437 0.523917 0.528835 0.504448 
          0.534692 0.514396 0.511828 0.490587 
          0.536370 0.516140 0.513581 0.492415 
          0.495242 0.477366 0.470465 0.451609 
          0.497053 0.479244 0.472370 0.453594 
          0.489892 0.467656 0.469012 0.445736 
          0.491722 0.469573 0.470924 0.447747 
          0.446500 0.426587 0.423487 0.402437 
          0.448508 0.428688 0.425603 0.404663 
          0.539854 0.519760 0.517219 0.496208 
          0.545111 0.525217 0.522703 0.501922 
          0.500811 0.483141 0.476323 0.457709 
          0.506472 0.489008 0.482273 0.463898 
          0.495521 0.473549 0.474889 0.451915 
          0.501242 0.479533 0.480856 0.458182 
          0.452669 0.433040 0.429986 0.409270 
          0.458925 0.439576 0.436568 0.416180 
          0.724391 0.704016 0.702142 0.681101 
          0.730994 0.710808 0.708952 0.688119 
          0.684461 0.665799 0.660868 0.641520 
          0.691445 0.672977 0.668099 0.648967 
          0.680600 0.658871 0.659835 0.637399 
          0.687623 0.666124 0.667077 0.644893 
          0.637934 0.617868 0.615732 0.594918 
          0.645422 0.625596 0.623487 0.602940 
          0.738860 0.718895 0.717060 0.696470 
          0.747951 0.728235 0.726423 0.706106 
          0.699756 0.681513 0.676697 0.657815 
          0.709348 0.691358 0.686611 0.668009 
          0.695980 0.674747 0.675688 0.653796 
          0.705623 0.684689 0.685616 0.664052 
          0.654318 0.634770 0.632691 0.612454 
          0.664566 0.645329 0.643284 0.623390 
          0.648107 0.631467 0.623140 0.605814 
          0.655479 0.639031 0.630803 0.613694 
          0.615964 0.601686 0.589637 0.574705 
          0.623715 0.609619 0.597730 0.583005 
          0.598762 0.580710 0.575050 0.556229 
          0.606733 0.588926 0.583345 0.564800 
          0.563813 0.548178 0.538564 0.522174 
          0.572271 0.556874 0.547413 0.531295 
          0.664240 0.648014 0.639902 0.623043 
          0.674337 0.658360 0.650377 0.633797 
          0.632917 0.619029 0.607325 0.592839 
          0.643505 0.629852 0.618352 0.604130 
          0.616188 0.598662 0.593173 0.574945 
          0.627059 0.609845 0.604458 0.586581 
          0.582286 0.567160 0.557874 0.542067 
          0.593778 0.578953 0.569858 0.554394 
          0.639923 0.616764 0.620946 0.597051 
          0.647388 0.624505 0.628637 0.605045 
          0.594345 0.572754 0.573863 0.551471 
          0.602374 0.581082 0.582175 0.560115 
          0.602993 0.578356 0.586156 0.560780 
          0.610909 0.586605 0.594297 0.569283 
          0.554386 0.531174 0.536025 0.511981 
          0.562986 0.540143 0.544915 0.521281 
          0.656257 0.633695 0.637767 0.614526 
          0.666475 0.644271 0.648276 0.625426 
          0.611897 0.590948 0.592022 0.570343 
          0.622843 0.602275 0.603329 0.582072 
          0.620300 0.596379 0.603946 0.579350 
          0.631100 0.607604 0.615034 0.590899 
          0.573163 0.550743 0.555423 0.532256 
          0.584835 0.562879 0.567459 0.544804 
          0.552089 0.532456 0.529976 0.509492 
          0.560724 0.541405 0.538965 0.518837 
          0.513975 0.496774 0.490146 0.472078 
          0.523240 0.506354 0.499853 0.482148 
          0.508822 0.487450 0.488752 0.466462 
          0.518179 0.497210 0.498486 0.476651 
          0.467193 0.448200 0.445250 0.425278 
          0.477366 0.458794 0.455913 0.436430 
          0.570941 0.551980 0.549587 0.529862 
          0.582657 0.564090 0.561749 0.542466 
          0.534175 0.517645 0.511288 0.493993 
          0.546679 0.530539 0.524338 0.507489 
          0.529218 0.508704 0.509952 0.488629 
          0.541837 0.521819 0.523036 0.502269 
          0.489327 0.471227 0.468422 0.449481 
          0.502948 0.485356 0.482634 0.464273 
          0.780868 0.751682 0.770480 0.740885 
          0.782018 0.752876 0.771645 0.742096 
          0.722668 0.693848 0.711431 0.682136 
          0.723910 0.695142 0.712692 0.683452 
          0.761235 0.731265 0.753173 0.722869 
          0.762414 0.732492 0.754365 0.724111 
          0.701407 0.671676 0.692649 0.662525 
          0.702687 0.673012 0.693945 0.663880 
          0.784412 0.755362 0.774072 0.744619 
          0.788039 0.759128 0.777747 0.748438 
          0.726495 0.697834 0.715318 0.686190 
          0.730410 0.701908 0.719294 0.690333 
          0.764869 0.735048 0.756846 0.726696 
          0.768588 0.738917 0.760605 0.730609 
          0.705350 0.675792 0.696642 0.666698 
          0.709381 0.679999 0.700723 0.670962 
          0.665248 0.636897 0.653024 0.624117 
          0.666597 0.638306 0.654398 0.625555 
          0.608830 0.581087 0.595448 0.567052 
          0.610303 0.582631 0.596955 0.568634 
          0.642089 0.612667 0.632510 0.602621 
          0.643486 0.614132 0.633929 0.604110 
          0.583435 0.554424 0.572877 0.543302 
          0.584973 0.556042 0.574443 0.544953 
          0.669404 0.641237 0.657257 0.628546 
          0.673650 0.645668 0.661581 0.633066 
          0.613368 0.585841 0.600088 0.571922 
          0.618000 0.590688 0.604821 0.576886 
          0.646394 0.617177 0.636880 0.607206 
          0.650790 0.621780 0.641342 0.611884 
          0.588170 0.559404 0.577698 0.548383 
          0.592998 0.564478 0.582613 0.553559 
          0.746334 0.715740 0.740751 0.709917 
          0.747536 0.716994 0.741962 0.711181 
          0.685206 0.654740 0.679121 0.648368 
          0.686516 0.656110 0.680442 0.649753 
          0.736452 0.705431 0.733462 0.702308 
          0.737671 0.706703 0.734685 0.703586 
          0.674430 0.643453 0.671163 0.640028 
          0.675761 0.644848 0.672500 0.641430 
          0.750040 0.719605 0.744485 0.713813 
          0.753833 0.723557 0.748306 0.717796 
          0.689242 0.658962 0.683192 0.652632 
          0.693367 0.663275 0.687354 0.656987 
          0.740209 0.709351 0.737233 0.706246 
          0.744051 0.713360 0.741091 0.710272 
          0.678530 0.647749 0.675283 0.644347 
          0.682719 0.652137 0.679492 0.648757 
          0.624351 0.594051 0.617666 0.587021 
          0.625788 0.595561 0.619119 0.588550 
          0.563855 0.533780 0.556444 0.525946 
          0.565446 0.535461 0.558056 0.527651 
          0.612505 0.581588 0.608905 0.577796 
          0.613970 0.583131 0.610379 0.579349 
          0.550709 0.519875 0.546703 0.515629 
          0.552338 0.521600 0.548344 0.517369 
          0.628777 0.598701 0.622140 0.591727 
          0.633296 0.603446 0.626707 0.596527 
          0.568752 0.538951 0.561406 0.531193 
          0.573744 0.544216 0.566463 0.536534 
          0.617016 0.586338 0.613443 0.582577 
          0.621620 0.591181 0.618074 0.587451 
          0.555723 0.525182 0.551753 0.520980 
          0.560830 0.530584 0.556897 0.526425 
          0.792881 0.764154 0.782653 0.753536 
          0.798918 0.770416 0.788768 0.759885 
          0.735632 0.707341 0.724596 0.695857 
          0.742135 0.714101 0.731197 0.702727 
          0.773553 0.744080 0.765621 0.735830 
          0.779739 0.750509 0.771871 0.742331 
          0.714757 0.685605 0.706165 0.676643 
          0.721448 0.692578 0.712937 0.683707 
          0.806122 0.777884 0.796064 0.767456 
          0.814462 0.786523 0.804508 0.776211 
          0.749884 0.722152 0.739061 0.710907 
          0.758843 0.731450 0.748149 0.720350 
          0.787119 0.758173 0.779325 0.750079 
          0.795658 0.767035 0.787949 0.759035 
          0.729417 0.700875 0.721000 0.692111 
          0.738624 0.710452 0.730313 0.701807 
          0.679309 0.651570 0.667343 0.639084 
          0.686346 0.658903 0.674504 0.646559 
          0.624163 0.597134 0.611118 0.583484 
          0.631814 0.605127 0.618930 0.591661 
          0.656646 0.627907 0.647283 0.618109 
          0.663923 0.635513 0.654664 0.625834 
          0.599419 0.571220 0.589147 0.560431 
          0.607382 0.579570 0.597247 0.568940 
          0.694718 0.667619 0.683021 0.655439 
          0.704378 0.677666 0.692845 0.665670 
          0.640899 0.614606 0.628201 0.601353 
          0.651358 0.625505 0.638868 0.612488 
          0.672574 0.644546 0.663436 0.635004 
          0.682548 0.654946 0.673545 0.645559 
          0.616826 0.589461 0.606849 0.579012 
          0.627687 0.600816 0.617885 0.590568 
          0.758894 0.728828 0.753404 0.723110 
          0.765199 0.735391 0.759755 0.729724 
          0.698866 0.669022 0.692901 0.662788 
          0.705708 0.676165 0.699800 0.669998 
          0.749178 0.718706 0.746239 0.715641 
          0.755564 0.725361 0.752650 0.722324 
          0.688304 0.657981 0.685103 0.654631 
          0.695249 0.665243 0.692080 0.661930 
          0.772717 0.743211 0.767326 0.737604 
          0.781414 0.752249 0.776083 0.746710 
          0.713853 0.684662 0.708014 0.678572 
          0.723257 0.694462 0.717495 0.688459 
          0.763178 0.733287 0.760292 0.730284 
          0.771982 0.742446 0.769129 0.739479 
          0.703515 0.673877 0.700384 0.670607 
          0.713056 0.683832 0.709967 0.680610 
          0.639312 0.609756 0.632786 0.602910 
          0.646784 0.617586 0.640333 0.610827 
          0.580378 0.551206 0.573181 0.543622 
          0.588598 0.559855 0.581503 0.552390 
          0.627749 0.597621 0.624237 0.593932 
          0.635356 0.605607 0.631887 0.601967 
          0.567615 0.537751 0.563729 0.533648 
          0.576018 0.546613 0.572189 0.542576 
          0.655661 0.626877 0.649299 0.620220 
          0.665888 0.637566 0.659625 0.631021 
          0.598340 0.570087 0.591361 0.562759 
          0.609530 0.581821 0.602680 0.574641 
          0.644391 0.615080 0.640971 0.611495 
          0.654794 0.625970 0.651429 0.622449 
          0.585968 0.557089 0.582205 0.553129 
          0.597390 0.569090 0.593699 0.565214 
          0.553719 0.526783 0.538971 0.511258 
          0.555339 0.528485 0.540635 0.513013 
          0.500348 0.474500 0.483977 0.457203 
          0.502141 0.476389 0.485830 0.459164 
          0.525669 0.497215 0.513925 0.484783 
          0.527375 0.499019 0.515671 0.486633 
          0.469118 0.441444 0.455920 0.427393 
          0.471029 0.443475 0.457886 0.429490 
          0.558705 0.532021 0.544092 0.516655 
          0.563786 0.537355 0.549308 0.522145 
          0.505861 0.480309 0.489674 0.463230 
          0.511467 0.486210 0.495463 0.469345 
          0.530919 0.502762 0.519294 0.490471 
          0.536263 0.508403 0.524756 0.496250 
          0.474993 0.447683 0.461963 0.433833 
          0.480959 0.454008 0.468095 0.440357 
          0.449338 0.424985 0.431033 0.405583 
          0.451333 0.427094 0.433113 0.407792 
          0.401589 0.379325 0.380997 0.357453 
          0.403820 0.381686 0.383347 0.359957 
          0.414280 0.387731 0.399273 0.371654 
          0.416443 0.390042 0.401517 0.374064 
          0.361935 0.337062 0.344656 0.318437 
          0.364408 0.339717 0.347253 0.321246 
          0.455468 0.431462 0.437420 0.412364 
          0.461687 0.438021 0.443892 0.419222 
          0.408436 0.386567 0.388208 0.365129 
          0.415359 0.393875 0.395485 0.372857 
          0.420921 0.394820 0.406160 0.379043 
          0.427642 0.401977 0.413121 0.386493 
          0.369518 0.345192 0.352611 0.327030 
          0.377156 0.353356 0.360608 0.335637 
          0.503849 0.474088 0.495541 0.465249 
          0.505629 0.475979 0.497351 0.467176 
          0.444531 0.415222 0.435092 0.405101 
          0.446547 0.417380 0.437152 0.407312 
          0.489093 0.458375 0.484578 0.453554 
          0.490926 0.460330 0.486428 0.455530 
          0.427733 0.397187 0.422563 0.391613 
          0.429829 0.399442 0.424684 0.393901 
          0.509324 0.479902 0.501107 0.471172 
          0.514892 0.485808 0.506765 0.477186 
          0.450726 0.421848 0.441420 0.411890 
          0.457009 0.428555 0.447834 0.418756 
          0.494731 0.464386 0.490268 0.459628 
          0.500462 0.470486 0.496050 0.465791 
          0.434169 0.404109 0.429076 0.398633 
          0.440688 0.411105 0.435671 0.405723 
          0.386217 0.357591 0.375315 0.345788 
          0.388536 0.360095 0.377701 0.348376 
          0.329443 0.301905 0.316591 0.287826 
          0.332158 0.304866 0.319416 0.290931 
          0.366759 0.336481 0.360716 0.329884 
          0.369200 0.339141 0.363198 0.332596 
          0.306399 0.276577 0.299139 0.268512 
          0.309318 0.279806 0.302128 0.271837 
          0.393333 0.365265 0.382633 0.353717 
          0.400517 0.372990 0.390014 0.361689 
          0.337756 0.310955 0.325233 0.297306 
          0.346096 0.319994 0.333886 0.306747 
          0.374244 0.344625 0.368324 0.338187 
          0.381788 0.352803 0.375986 0.346516 
          0.315321 0.286429 0.308271 0.278649 
          0.324239 0.296217 0.317387 0.288701 
          0.570536 0.544432 0.556234 0.529425 
          0.578896 0.553187 0.564806 0.538424 
          0.518898 0.494020 0.503130 0.477432 
          0.528076 0.503652 0.512591 0.487392 
          0.543355 0.515877 0.532001 0.503906 
          0.552126 0.525108 0.540957 0.513352 
          0.488854 0.462363 0.476203 0.448966 
          0.498585 0.472640 0.486188 0.459543 
          0.588798 0.563541 0.574950 0.549057 
          0.600165 0.575407 0.586586 0.561230 
          0.538912 0.515003 0.523748 0.499112 
          0.551309 0.527962 0.536495 0.512473 
          0.562500 0.536005 0.551541 0.524493 
          0.574388 0.548468 0.563660 0.537223 
          0.510049 0.484718 0.497937 0.471956 
          0.523130 0.498465 0.511328 0.486064 
          0.469905 0.446675 0.452433 0.428257 
          0.480021 0.457305 0.462931 0.439333 
          0.424476 0.403477 0.405049 0.382987 
          0.435648 0.415214 0.416742 0.395333 
          0.436502 0.411390 0.422286 0.396274 
          0.447374 0.422908 0.433515 0.408219 
          0.387173 0.364029 0.371072 0.346855 
          0.399390 0.376996 0.383801 0.360441 
          0.491917 0.469777 0.475256 0.452300 
          0.505468 0.483949 0.489268 0.467002 
          0.448722 0.428912 0.430391 0.409696 
          0.463538 0.444389 0.445816 0.425871 
          0.460115 0.436364 0.446651 0.422143 
          0.474575 0.451585 0.461533 0.437859 
          0.413612 0.392032 0.398580 0.376138 
          0.429640 0.408906 0.415189 0.393695 
          0.522274 0.493625 0.514264 0.485142 
          0.531394 0.503264 0.523524 0.494947 
          0.465310 0.437396 0.456302 0.427800 
          0.475524 0.448246 0.466713 0.438887 
          0.508053 0.478554 0.503708 0.473938 
          0.517424 0.488490 0.513158 0.483970 
          0.449290 0.420314 0.444371 0.415051 
          0.459860 0.431593 0.455055 0.426470 
          0.542164 0.514623 0.534452 0.506493 
          0.554488 0.527591 0.546951 0.519664 
          0.487530 0.460963 0.478940 0.451868 
          0.501200 0.475397 0.492848 0.466584 
          0.528479 0.500185 0.524303 0.495771 
          0.541115 0.513518 0.537038 0.509220 
          0.472265 0.444787 0.467587 0.439817 
          0.486363 0.459729 0.481823 0.454923 
          0.409963 0.383116 0.399709 0.372123 
          0.421520 0.395458 0.411554 0.384818 
          0.356985 0.331742 0.345161 0.318983 
          0.370200 0.345922 0.358811 0.333706 
          0.391686 0.363491 0.386034 0.357393 
          0.403767 0.376478 0.398285 0.370593 
          0.335838 0.308870 0.329227 0.301670 
          0.349852 0.324053 0.343511 0.317197 
          0.435019 0.409817 0.425370 0.399559 
          0.450286 0.425987 0.440970 0.416128 
          0.385500 0.362249 0.374577 0.350602 
          0.402649 0.380447 0.392204 0.369375 
          0.417840 0.391533 0.412546 0.385878 
          0.433711 0.408428 0.428613 0.403010 
          0.366004 0.341428 0.359948 0.334928 
          0.384024 0.360678 0.378257 0.354531 
          0.937043 0.912863 0.919951 0.895310 
          0.946293 0.922356 0.929371 0.904987 
          0.889125 0.865863 0.871093 0.847337 
          0.898869 0.875866 0.881036 0.857556 
          0.903616 0.878517 0.888082 0.862531 
          0.913206 0.888378 0.897837 0.872571 
          0.853824 0.829574 0.837366 0.812625 
          0.863966 0.840009 0.847705 0.823275 
          0.956476 0.932800 0.939737 0.915629 
          0.967561 0.944163 0.951018 0.927203 
          0.909582 0.886858 0.891964 0.868779 
          0.921232 0.898802 0.903841 0.880968 
          0.923753 0.899216 0.908562 0.883604 
          0.935226 0.910998 0.920225 0.895591 
          0.875107 0.851463 0.859057 0.834959 
          0.887210 0.863897 0.871383 0.847634 
          0.843119 0.820934 0.824081 0.801369 
          0.853388 0.831477 0.834584 0.812166 
          0.799355 0.778432 0.779248 0.757771 
          0.810179 0.789543 0.790348 0.769181 
          0.805805 0.782563 0.788346 0.764573 
          0.816544 0.793616 0.799319 0.775882 
          0.759896 0.737855 0.741355 0.718747 
          0.771274 0.749568 0.753014 0.730766 
          0.864665 0.843047 0.846112 0.824008 
          0.876912 0.855603 0.858623 0.836849 
          0.822049 0.801719 0.802512 0.781674 
          0.834921 0.814912 0.815692 0.795199 
          0.828323 0.805731 0.811348 0.788269 
          0.841099 0.818859 0.824387 0.801684 
          0.783733 0.762383 0.765770 0.743904 
          0.797224 0.776244 0.779572 0.758104 
          0.873389 0.847395 0.859582 0.833157 
          0.883306 0.857613 0.869657 0.843548 
          0.821768 0.796542 0.807078 0.781378 
          0.832300 0.807404 0.817800 0.792447 
          0.846703 0.819864 0.834797 0.807562 
          0.856930 0.830421 0.845167 0.818277 
          0.793347 0.767188 0.780627 0.754026 
          0.804253 0.778459 0.791708 0.765492 
          0.894206 0.868836 0.880726 0.854955 
          0.906054 0.881024 0.892752 0.867339 
          0.843860 0.819314 0.829561 0.804579 
          0.856404 0.832228 0.842318 0.817726 
          0.868161 0.842006 0.856553 0.830032 
          0.880359 0.854577 0.868913 0.842781 
          0.816209 0.790806 0.803851 0.778044 
          0.829171 0.804178 0.817009 0.791632 
          0.771757 0.747456 0.756096 0.731275 
          0.782962 0.759021 0.767530 0.743092 
          0.723690 0.700511 0.706965 0.683219 
          0.735628 0.712838 0.719181 0.695852 
          0.741422 0.716093 0.727795 0.701974 
          0.753079 0.728156 0.739667 0.714276 
          0.691249 0.666944 0.676612 0.651762 
          0.703738 0.679879 0.689366 0.664992 
          0.795239 0.771679 0.780050 0.756016 
          0.808538 0.785376 0.793603 0.769993 
          0.748681 0.726301 0.732527 0.709638 
          0.762792 0.740838 0.746943 0.724509 
          0.765835 0.741341 0.752650 0.727712 
          0.779635 0.755589 0.766688 0.742222 
          0.717372 0.693982 0.703279 0.679404 
          0.732086 0.709182 0.718282 0.694923 
          0.979518 0.956413 0.963180 0.939673 
          0.992315 0.969515 0.976192 0.953006 
          0.933782 0.911661 0.916629 0.894084 
          0.947198 0.925397 0.930292 0.908086 
          0.947591 0.923688 0.932789 0.908496 
          0.960814 0.937248 0.946219 0.922280 
          0.900235 0.877268 0.884640 0.861258 
          0.914143 0.891534 0.898790 0.875785 
          1.005921 0.983437 0.990019 0.967165 
          1.020303 0.998142 1.004628 0.982114 
          0.961442 0.939972 0.944792 0.922934 
          0.976479 0.955347 0.960089 0.938588 
          0.974859 0.951641 0.960477 0.936903 
          0.989693 0.966831 0.975529 0.952328 
          0.928894 0.906654 0.913789 0.891172 
          0.944450 0.922584 0.929597 0.907374 
          0.890087 0.869102 0.872075 0.850646 
          0.904151 0.883500 0.886425 0.865351 
          0.848749 0.829074 0.829840 0.809706 
          0.863486 0.844155 0.844907 0.825141 
          0.854827 0.832953 0.838388 0.816075 
          0.869461 0.847966 0.853305 0.831392 
          0.811694 0.791098 0.794364 0.773306 
          0.827092 0.806890 0.810091 0.789454 
          0.919063 0.898755 0.901630 0.880920 
          0.934782 0.914823 0.917648 0.897308 
          0.879088 0.860108 0.860846 0.841454 
          0.895509 0.876884 0.877609 0.858595 
          0.884958 0.863848 0.869090 0.847585 
          0.901272 0.880553 0.885696 0.864604 
          0.843368 0.823564 0.826702 0.806489 
          0.860471 0.841070 0.844142 0.824358 
          0.918811 0.894139 0.905697 0.880657 
          0.932442 0.908141 0.919522 0.894870 
          0.869890 0.846100 0.856026 0.831840 
          0.884275 0.860883 0.870641 0.846872 
          0.893484 0.868092 0.882208 0.856482 
          0.907495 0.882506 0.896396 0.871089 
          0.843093 0.818525 0.831135 0.806202 
          0.857928 0.833797 0.846179 0.821703 
          0.946909 0.922988 0.934189 0.909934 
          0.962173 0.938641 0.949658 0.925808 
          0.899517 0.876531 0.886117 0.862774 
          0.915571 0.892999 0.902410 0.879500 
          0.922353 0.897778 0.911435 0.886557 
          0.938017 0.913863 0.927283 0.902842 
          0.873629 0.849944 0.862095 0.838083 
          0.890151 0.866917 0.878833 0.855292 
          0.822809 0.800061 0.808138 0.784965 
          0.838003 0.815679 0.823603 0.800877 
          0.777903 0.756388 0.762369 0.740402 
          0.793957 0.772888 0.778743 0.757251 
          0.794426 0.770841 0.781723 0.757743 
          0.810153 0.787039 0.797700 0.774215 
          0.747818 0.725411 0.734309 0.711477 
          0.764504 0.742600 0.751295 0.728995 