<?xml version="1.0"?>
<VTKFile type="UnstructuredGrid" version="0.1" byte_order="BigEndian">
  <UnstructuredGrid>
    <Piece NumberOfCells="35372" NumberOfPoints="39135">
      <CellData Scalars="Data">
      <DataArray type="Float64" Name="Data" NumberOfComponents="1" format="ascii">
          0.914877 0.890417 0.896034 0.871045 
          0.915773 0.891338 0.896949 0.871986 
          0.866394 0.842844 0.846472 0.822352 
          0.867340 0.843817 0.847441 0.823349 
          0.877900 0.852379 0.860518 0.834466 
          0.878834 0.853341 0.861471 0.835448 
          0.827252 0.802554 0.808782 0.783503 
          0.828243 0.803576 0.809796 0.784549 
          0.917734 0.893352 0.898950 0.874045 
          0.920751 0.896451 0.902030 0.877212 
          0.869409 0.845944 0.849558 0.825529 
          0.872593 0.849216 0.852817 0.828881 
          0.880876 0.855444 0.863554 0.837596 
          0.884019 0.858680 0.866760 0.840901 
          0.830409 0.805809 0.812012 0.786836 
          0.833742 0.809243 0.815420 0.790353 
          0.819809 0.797334 0.798727 0.775641 
          0.820809 0.798363 0.799753 0.776698 
          0.775468 0.754262 0.753145 0.731292 
          0.776525 0.755349 0.754233 0.732413 
          0.778328 0.754619 0.758669 0.734325 
          0.779382 0.755705 0.759749 0.735441 
          0.731476 0.708956 0.710521 0.687315 
          0.732597 0.710112 0.711675 0.688507 
          0.822996 0.800610 0.801997 0.779008 
          0.826359 0.804067 0.805448 0.782560 
          0.778835 0.757724 0.756612 0.734862 
          0.782388 0.761375 0.760269 0.738627 
          0.781684 0.758079 0.762111 0.737880 
          0.785224 0.761729 0.765741 0.741629 
          0.735045 0.712638 0.714195 0.691112 
          0.738809 0.716519 0.718068 0.695113 
          0.843936 0.817355 0.828201 0.801099 
          0.844907 0.818358 0.829191 0.802122 
          0.791116 0.765254 0.774309 0.747866 
          0.792152 0.766325 0.775368 0.748962 
          0.813363 0.785749 0.799472 0.771361 
          0.814371 0.786793 0.800498 0.772424 
          0.758418 0.731400 0.743501 0.715920 
          0.759498 0.732520 0.744603 0.717065 
          0.847031 0.820551 0.831355 0.804359 
          0.850299 0.823924 0.834685 0.807800 
          0.794418 0.768666 0.777682 0.751357 
          0.797901 0.772266 0.781240 0.755039 
          0.816575 0.789073 0.802739 0.774747 
          0.819964 0.792580 0.806187 0.778318 
          0.761861 0.734969 0.747012 0.719566 
          0.765492 0.738733 0.750716 0.723410 
          0.739807 0.714821 0.721806 0.696175 
          0.740915 0.715968 0.722942 0.697352 
          0.690346 0.666437 0.671019 0.646396 
          0.691533 0.667666 0.672241 0.647664 
          0.704732 0.678455 0.688653 0.661738 
          0.705895 0.679663 0.689843 0.662977 
          0.652617 0.627272 0.635221 0.609152 
          0.653873 0.628578 0.636511 0.610497 
          0.743336 0.718473 0.725423 0.699924 
          0.747058 0.722323 0.729236 0.703875 
          0.694126 0.670352 0.674908 0.650432 
          0.698111 0.674477 0.679005 0.654682 
          0.708436 0.682302 0.692443 0.665682 
          0.712340 0.686355 0.696437 0.669835 
          0.656615 0.631431 0.639327 0.613433 
          0.660826 0.635808 0.643651 0.617938 
          0.924814 0.900624 0.906178 0.881477 
          0.929911 0.905857 0.911379 0.886822 
          0.876880 0.853620 0.857203 0.833393 
          0.882254 0.859139 0.862699 0.839046 
          0.888251 0.863036 0.871075 0.845349 
          0.893556 0.868495 0.876485 0.850922 
          0.838228 0.813864 0.820006 0.795084 
          0.843848 0.819651 0.825750 0.801006 
          0.936024 0.912131 0.917615 0.893230 
          0.943133 0.919425 0.924866 0.900677 
          0.888695 0.865752 0.869284 0.845815 
          0.896180 0.873434 0.876935 0.853676 
          0.899916 0.875037 0.882968 0.857598 
          0.907308 0.882638 0.890500 0.865352 
          0.850580 0.826580 0.832628 0.808095 
          0.858397 0.834622 0.840612 0.816319 
          0.830884 0.808717 0.810090 0.787338 
          0.836554 0.814541 0.815904 0.793318 
          0.787167 0.766285 0.765185 0.743686 
          0.793148 0.772428 0.771337 0.750015 
          0.789985 0.766636 0.770623 0.746669 
          0.795946 0.772777 0.776732 0.752972 
          0.743867 0.721734 0.723272 0.700487 
          0.750194 0.728253 0.729777 0.707203 
          0.843343 0.821513 0.822864 0.800475 
          0.851227 0.829604 0.830942 0.808776 
          0.800307 0.779777 0.778696 0.757581 
          0.808610 0.788296 0.787227 0.766347 
          0.803079 0.780122 0.784040 0.760509 
          0.811354 0.788638 0.792514 0.769242 
          0.757758 0.736043 0.737551 0.715222 
          0.766523 0.745062 0.746552 0.724501 
          0.854698 0.828463 0.839165 0.812429 
          0.860210 0.834149 0.844779 0.818226 
          0.802587 0.777107 0.786025 0.759990 
          0.808455 0.783165 0.792016 0.766184 
          0.824525 0.797297 0.810825 0.783121 
          0.830238 0.803204 0.816633 0.789134 
          0.770376 0.743792 0.755695 0.728576 
          0.776487 0.750120 0.761924 0.735035 
          0.866815 0.840958 0.851503 0.825167 
          0.874487 0.848864 0.859312 0.833222 
          0.815479 0.790414 0.799184 0.773591 
          0.823629 0.798820 0.807499 0.782178 
          0.837079 0.810273 0.823588 0.796328 
          0.845021 0.818475 0.831658 0.804673 
          0.783797 0.757685 0.769372 0.742753 
          0.792273 0.766450 0.778006 0.751692 
          0.752061 0.727496 0.734361 0.709183 
          0.758320 0.733964 0.740769 0.715817 
          0.703462 0.680014 0.684506 0.660385 
          0.710149 0.686930 0.691376 0.667504 
          0.717585 0.691797 0.701801 0.675410 
          0.724142 0.698596 0.708504 0.682372 
          0.666476 0.641679 0.649451 0.623977 
          0.673531 0.649003 0.656688 0.631507 
          0.765804 0.741694 0.748428 0.723740 
          0.774477 0.750646 0.757301 0.732911 
          0.718135 0.695182 0.699577 0.675994 
          0.727377 0.704725 0.709060 0.685804 
          0.731975 0.706712 0.716508 0.690679 
          0.741045 0.716102 0.725771 0.700284 
          0.681946 0.657732 0.665316 0.640474 
          0.691671 0.667810 0.675282 0.650820 
          0.733774 0.714067 0.710142 0.689760 
          0.734891 0.715215 0.711296 0.690948 
          0.695206 0.677263 0.670216 0.651585 
          0.696385 0.678473 0.671439 0.652842 
          0.687119 0.666032 0.664767 0.642948 
          0.688311 0.667263 0.666000 0.644223 
          0.645770 0.626413 0.621935 0.601811 
          0.647039 0.627721 0.623252 0.603172 
          0.737332 0.717723 0.713818 0.693544 
          0.741084 0.721577 0.717693 0.697531 
          0.698961 0.681117 0.674109 0.655589 
          0.702918 0.685176 0.678211 0.659806 
          0.690917 0.669950 0.668693 0.647006 
          0.694920 0.674077 0.672827 0.651279 
          0.649811 0.630577 0.626129 0.606144 
          0.654065 0.634960 0.630543 0.610702 
          0.660312 0.644431 0.633947 0.617389 
          0.661553 0.645703 0.635240 0.618716 
          0.629702 0.616206 0.601998 0.587867 
          0.631003 0.617536 0.603359 0.589260 
          0.608045 0.590761 0.582668 0.564608 
          0.609393 0.592148 0.584075 0.566059 
          0.574658 0.559837 0.547736 0.532166 
          0.576083 0.561300 0.549232 0.533705 
          0.664264 0.648480 0.638062 0.621613 
          0.668426 0.652742 0.642394 0.626059 
          0.633844 0.620439 0.606330 0.592302 
          0.638205 0.624893 0.610887 0.596966 
          0.612335 0.595175 0.587143 0.569225 
          0.616847 0.599817 0.591848 0.574076 
          0.579194 0.564492 0.552494 0.537062 
          0.583963 0.569384 0.557491 0.542201 
          0.643158 0.620580 0.622368 0.599006 
          0.644432 0.621900 0.623684 0.600374 
          0.598781 0.577852 0.576393 0.554619 
          0.600150 0.579270 0.577814 0.556096 
          0.602482 0.578318 0.583592 0.558612 
          0.603842 0.579734 0.584996 0.560078 
          0.554862 0.532208 0.534291 0.510726 
          0.556338 0.533747 0.535825 0.512329 
          0.647214 0.624783 0.626559 0.603360 
          0.651485 0.629206 0.630970 0.607939 
          0.603136 0.582363 0.580916 0.559318 
          0.607717 0.587106 0.585671 0.564255 
          0.606810 0.582826 0.588060 0.563278 
          0.611364 0.587565 0.592757 0.568180 
          0.559559 0.537103 0.539168 0.515825 
          0.564493 0.542242 0.544287 0.521174 
          0.557888 0.538998 0.533787 0.514012 
          0.559356 0.540518 0.535322 0.515605 
          0.521298 0.504913 0.495420 0.478149 
          0.522869 0.506535 0.497073 0.479862 
          0.510462 0.489746 0.488024 0.466312 
          0.512066 0.491418 0.489702 0.468068 
          0.470195 0.451962 0.445735 0.426457 
          0.471937 0.453773 0.447571 0.428376 
          0.562560 0.543832 0.538668 0.519079 
          0.567468 0.548908 0.543792 0.524394 
          0.526294 0.510070 0.500675 0.483592 
          0.531538 0.515479 0.506184 0.489293 
          0.515564 0.495061 0.493357 0.471891 
          0.520915 0.500632 0.498947 0.477732 
          0.475729 0.457716 0.451568 0.432550 
          0.481524 0.463736 0.457669 0.438915 
          0.746127 0.726755 0.722899 0.702887 
          0.752435 0.733230 0.729408 0.709580 
          0.708233 0.690628 0.683718 0.665465 
          0.714875 0.697438 0.690597 0.672530 
          0.700295 0.679618 0.678378 0.657011 
          0.707012 0.686537 0.685310 0.664166 
          0.659773 0.640839 0.636462 0.616812 
          0.666899 0.648172 0.643846 0.624428 
          0.759977 0.740967 0.737186 0.717572 
          0.768716 0.749928 0.746192 0.726821 
          0.722809 0.705568 0.698806 0.680958 
          0.731992 0.714972 0.708300 0.690697 
          0.715033 0.694795 0.693582 0.672698 
          0.724315 0.704343 0.703147 0.682556 
          0.675396 0.656912 0.652643 0.633496 
          0.685215 0.667003 0.662799 0.643953 
          0.674013 0.658462 0.648205 0.632020 
          0.680989 0.665602 0.655457 0.639455 
          0.644054 0.630866 0.616995 0.603215 
          0.651351 0.638314 0.624608 0.611000 
          0.622897 0.606036 0.598150 0.580572 
          0.630439 0.613786 0.606001 0.588657 
          0.590350 0.575933 0.564177 0.549074 
          0.598303 0.584082 0.572494 0.557616 
          0.689313 0.674116 0.664101 0.648313 
          0.698936 0.683953 0.674084 0.658535 
          0.660049 0.647187 0.633673 0.620264 
          0.670093 0.657427 0.644128 0.630941 
          0.639421 0.623008 0.615340 0.598266 
          0.649784 0.633639 0.626101 0.609329 
          0.607760 0.593766 0.582371 0.567751 
          0.618653 0.604911 0.593730 0.579397 
          0.657216 0.635138 0.636885 0.614076 
          0.664369 0.642537 0.644264 0.621726 
          0.613857 0.593459 0.592039 0.570862 
          0.621509 0.601371 0.599969 0.579083 
          0.617467 0.593913 0.599050 0.574742 
          0.625075 0.601819 0.606889 0.582908 
          0.571098 0.549114 0.551134 0.528320 
          0.579315 0.557655 0.559644 0.537192 
          0.672899 0.651352 0.653056 0.630832 
          0.682753 0.661528 0.663205 0.641333 
          0.630619 0.610781 0.609401 0.588849 
          0.641123 0.621621 0.620265 0.600085 
          0.634133 0.611222 0.616215 0.592611 
          0.644581 0.622054 0.626961 0.603777 
          0.589077 0.567790 0.569744 0.547706 
          0.600310 0.579435 0.581350 0.559768 
          0.574039 0.555698 0.550645 0.531497 
          0.582214 0.564139 0.559163 0.540317 
          0.538547 0.522703 0.513539 0.496898 
          0.547253 0.531669 0.522662 0.506321 
          0.528065 0.508067 0.506407 0.485518 
          0.536941 0.517287 0.515656 0.495158 
          0.489249 0.471753 0.465790 0.447378 
          0.498817 0.481668 0.475830 0.457821 
          0.591929 0.574160 0.569271 0.550771 
          0.603108 0.585678 0.580886 0.562768 
          0.557577 0.542289 0.533462 0.517462 
          0.569431 0.554470 0.545840 0.530214 
          0.547460 0.528197 0.526600 0.506545 
          0.559528 0.540695 0.539136 0.519564 
          0.510122 0.493366 0.487668 0.470113 
          0.523052 0.506724 0.501178 0.484113 
          0.786578 0.757989 0.774730 0.745687 
          0.787620 0.759070 0.775788 0.746786 
          0.729618 0.701492 0.716829 0.688181 
          0.730741 0.702660 0.717973 0.689372 
          0.763978 0.734509 0.754368 0.724508 
          0.765051 0.735625 0.755454 0.725640 
          0.705195 0.676053 0.694772 0.665174 
          0.706357 0.677265 0.695951 0.666406 
          0.789898 0.761434 0.778101 0.749188 
          0.793402 0.765067 0.781657 0.752881 
          0.733196 0.705213 0.720471 0.691973 
          0.736969 0.709134 0.724310 0.695970 
          0.767396 0.738064 0.757829 0.728112 
          0.771002 0.741812 0.761480 0.731911 
          0.708896 0.679913 0.698529 0.669097 
          0.712798 0.683980 0.702488 0.673229 
          0.673641 0.646101 0.659768 0.631624 
          0.674857 0.647369 0.661010 0.632921 
          0.618914 0.592128 0.603785 0.576296 
          0.620238 0.593511 0.605142 0.577718 
          0.647108 0.618388 0.635734 0.606475 
          0.648375 0.619713 0.637023 0.607826 
          0.589925 0.561758 0.577425 0.548617 
          0.591314 0.563217 0.578844 0.550110 
          0.677515 0.650139 0.663723 0.635754 
          0.681596 0.654391 0.667889 0.640101 
          0.623128 0.596531 0.608104 0.580820 
          0.627563 0.601162 0.612648 0.585575 
          0.651140 0.622606 0.639837 0.610775 
          0.655386 0.627045 0.644157 0.615299 
          0.594345 0.566398 0.581940 0.553367 
          0.598993 0.571274 0.586687 0.558357 
          0.745944 0.715733 0.738747 0.708229 
          0.747043 0.716878 0.739856 0.709387 
          0.685616 0.655605 0.677779 0.647404 
          0.686811 0.656855 0.678988 0.648670 
          0.732813 0.702037 0.728172 0.697192 
          0.733931 0.703205 0.729298 0.698368 
          0.671306 0.640625 0.666238 0.635312 
          0.672527 0.641904 0.667468 0.636601 
          0.749444 0.719381 0.742281 0.711915 
          0.753136 0.723226 0.746008 0.715800 
          0.689423 0.659585 0.681629 0.651434 
          0.693434 0.663776 0.685686 0.655678 
          0.736375 0.705755 0.731758 0.700936 
          0.740132 0.709674 0.735538 0.704882 
          0.675193 0.644697 0.670154 0.639418 
          0.679288 0.648985 0.674280 0.643741 
          0.625715 0.595964 0.617117 0.586931 
          0.627024 0.597339 0.618445 0.588327 
          0.566376 0.536975 0.556863 0.526932 
          0.567822 0.538501 0.558334 0.528486 
          0.610001 0.579445 0.604419 0.573565 
          0.611344 0.580859 0.605775 0.574993 
          0.548966 0.518579 0.542756 0.512001 
          0.550458 0.520159 0.544266 0.513601 
          0.629884 0.600340 0.621344 0.591374 
          0.634271 0.604942 0.625791 0.596045 
          0.570978 0.541827 0.561543 0.531875 
          0.575815 0.546922 0.566460 0.537064 
          0.614277 0.583944 0.608734 0.578110 
          0.618775 0.588674 0.613273 0.582888 
          0.553713 0.523602 0.547557 0.517088 
          0.558699 0.528872 0.552599 0.522424 
          0.798114 0.769953 0.786440 0.757846 
          0.804014 0.776068 0.792427 0.764057 
          0.742040 0.714403 0.729469 0.701337 
          0.748383 0.720989 0.735920 0.708044 
          0.775850 0.746850 0.766389 0.737017 
          0.781918 0.753152 0.772531 0.743402 
          0.718039 0.689441 0.707806 0.678776 
          0.724592 0.696263 0.714452 0.685704 
          0.811077 0.783382 0.799592 0.771485 
          0.819271 0.791863 0.807903 0.780095 
          0.755965 0.728856 0.743629 0.716054 
          0.764750 0.737964 0.752558 0.725322 
          0.789179 0.760687 0.779879 0.751035 
          0.797598 0.769418 0.788397 0.759877 
          0.732421 0.704406 0.722391 0.693972 
          0.741485 0.713826 0.731579 0.703531 
          0.687076 0.660097 0.673480 0.645933 
          0.693921 0.667219 0.680462 0.653210 
          0.633510 0.607368 0.618739 0.591945 
          0.640928 0.615101 0.626331 0.599876 
          0.661083 0.632997 0.649953 0.621364 
          0.668194 0.640420 0.657185 0.628925 
          0.605221 0.577801 0.593044 0.565033 
          0.612981 0.585924 0.600961 0.573337 
          0.702092 0.675712 0.688792 0.661883 
          0.711542 0.685526 0.698423 0.671899 
          0.649765 0.624304 0.635372 0.609309 
          0.659965 0.634913 0.645799 0.620175 
          0.676676 0.649265 0.665806 0.637929 
          0.686476 0.659472 0.675764 0.648315 
          0.622216 0.595578 0.610377 0.583199 
          0.632860 0.606690 0.621225 0.594542 
          0.758098 0.728392 0.751018 0.721020 
          0.764308 0.734853 0.757285 0.727546 
          0.698821 0.669402 0.691133 0.661372 
          0.705552 0.676426 0.697939 0.668481 
          0.745182 0.714939 0.740619 0.710182 
          0.751498 0.721520 0.746974 0.716807 
          0.684787 0.654737 0.679819 0.649540 
          0.691654 0.661917 0.686736 0.656776 
          0.771733 0.742573 0.764779 0.735343 
          0.780341 0.751514 0.773464 0.744371 
          0.713589 0.684805 0.706063 0.676959 
          0.722890 0.694491 0.715461 0.686755 
          0.759049 0.729381 0.754570 0.724719 
          0.767798 0.738482 0.763371 0.733878 
          0.699852 0.670478 0.694991 0.665403 
          0.709332 0.680367 0.704537 0.675367 
          0.640156 0.611110 0.631755 0.602304 
          0.647498 0.618796 0.639193 0.610101 
          0.582291 0.553736 0.573042 0.544002 
          0.590352 0.562207 0.581232 0.552622 
          0.624806 0.595010 0.619357 0.589286 
          0.632326 0.602902 0.626942 0.597253 
          0.565372 0.535916 0.559344 0.529553 
          0.573671 0.544664 0.567731 0.538405 
          0.656247 0.627944 0.648054 0.619378 
          0.666348 0.638493 0.658281 0.630070 
          0.599935 0.572261 0.590962 0.562848 
          0.610968 0.583817 0.602159 0.574593 
          0.641282 0.612288 0.635974 0.606727 
          0.651614 0.623102 0.646392 0.617638 
          0.583527 0.555036 0.577690 0.548895 
          0.594864 0.566943 0.589139 0.560933 
          0.565799 0.539996 0.549210 0.522588 
          0.567247 0.541513 0.550701 0.524155 
          0.514797 0.490296 0.496506 0.471054 
          0.516388 0.491966 0.498156 0.472792 
          0.533935 0.506511 0.520091 0.491896 
          0.535469 0.508128 0.521666 0.493561 
          0.479556 0.453152 0.464093 0.436756 
          0.481263 0.454959 0.465857 0.438630 
          0.570406 0.544822 0.553954 0.527572 
          0.575248 0.549889 0.558939 0.532803 
          0.519856 0.495605 0.501750 0.476578 
          0.525164 0.501170 0.507247 0.482362 
          0.538814 0.511652 0.525099 0.497188 
          0.543937 0.517044 0.530355 0.502736 
          0.484983 0.458892 0.469698 0.442707 
          0.490668 0.464896 0.475566 0.448928 
          0.466601 0.443842 0.446339 0.422490 
          0.468355 0.445686 0.448173 0.424427 
          0.422171 0.401764 0.399663 0.378043 
          0.424110 0.403801 0.401710 0.380207 
          0.427403 0.402434 0.409978 0.383877 
          0.429318 0.404467 0.411974 0.386008 
          0.378399 0.355488 0.358600 0.334335 
          0.380561 0.357788 0.360881 0.336780 
          0.472176 0.449700 0.452164 0.428640 
          0.478014 0.455826 0.458257 0.435062 
          0.428326 0.408226 0.406159 0.384904 
          0.434753 0.414965 0.412931 0.392043 
          0.433483 0.408886 0.416313 0.390635 
          0.439835 0.415613 0.422922 0.397672 
          0.385253 0.362776 0.365826 0.342074 
          0.392386 0.370342 0.373330 0.350088 
          0.507795 0.478877 0.497163 0.467587 
          0.509408 0.480587 0.498810 0.469338 
          0.450271 0.422039 0.438244 0.409184 
          0.452089 0.423978 0.440112 0.411184 
          0.488302 0.458155 0.481310 0.450696 
          0.489979 0.459942 0.483011 0.452512 
          0.428166 0.398371 0.420175 0.389769 
          0.430077 0.400425 0.422122 0.391868 
          0.512924 0.484312 0.502399 0.473151 
          0.518302 0.490005 0.507890 0.478977 
          0.456046 0.428195 0.444176 0.415531 
          0.462087 0.434624 0.450377 0.422152 
          0.493632 0.463832 0.486717 0.456466 
          0.499219 0.469773 0.492383 0.462502 
          0.434235 0.404887 0.426358 0.396427 
          0.440576 0.411680 0.432814 0.403362 
          0.394263 0.367046 0.380471 0.352190 
          0.396338 0.369274 0.382621 0.354511 
          0.340523 0.314867 0.324454 0.297416 
          0.342923 0.317462 0.326972 0.300161 
          0.368817 0.339566 0.359509 0.329433 
          0.371034 0.341974 0.361783 0.331914 
          0.310706 0.282354 0.299598 0.270083 
          0.313335 0.285245 0.302323 0.273103 
          0.400846 0.374109 0.387288 0.359544 
          0.407707 0.381450 0.394385 0.367177 
          0.348124 0.323073 0.332422 0.306089 
          0.356001 0.331546 0.340663 0.315020 
          0.375846 0.347188 0.366716 0.337284 
          0.383154 0.355087 0.374203 0.345409 
          0.319018 0.291476 0.308210 0.279605 
          0.327596 0.300841 0.317081 0.289354 
          0.581730 0.556666 0.565608 0.539796 
          0.589799 0.565093 0.573904 0.548482 
          0.532257 0.508597 0.514587 0.490075 
          0.541064 0.517807 0.523692 0.499626 
          0.550788 0.524247 0.537379 0.510140 
          0.559304 0.533187 0.546104 0.519323 
          0.498252 0.472894 0.483387 0.457205 
          0.507650 0.482785 0.493068 0.467429 
          0.599391 0.575097 0.583757 0.558783 
          0.610433 0.586597 0.595089 0.570612 
          0.551504 0.528706 0.534471 0.510913 
          0.563486 0.541193 0.546826 0.523824 
          0.569409 0.543778 0.556449 0.530191 
          0.581022 0.555926 0.568326 0.542643 
          0.518762 0.494457 0.504502 0.479475 
          0.531483 0.507786 0.517573 0.493209 
          0.485796 0.463980 0.466368 0.443598 
          0.495430 0.474057 0.476395 0.454128 
          0.443294 0.423905 0.421915 0.401494 
          0.453831 0.434912 0.432972 0.413099 
          0.448280 0.424540 0.431698 0.406992 
          0.458702 0.435531 0.442511 0.418445 
          0.401830 0.380333 0.383243 0.360640 
          0.413425 0.392563 0.395384 0.373516 
          0.506810 0.485939 0.488220 0.466517 
          0.519823 0.499496 0.501715 0.480622 
          0.466229 0.447834 0.445950 0.426681 
          0.480342 0.462509 0.460685 0.442059 
          0.470971 0.448435 0.455217 0.431859 
          0.484947 0.463091 0.469661 0.447059 
          0.426997 0.406832 0.409554 0.388485 
          0.442364 0.422932 0.425552 0.405315 
          0.525488 0.497599 0.515220 0.486743 
          0.534407 0.507009 0.524314 0.496359 
          0.470133 0.443168 0.458628 0.430944 
          0.480081 0.453708 0.468820 0.441776 
          0.506675 0.477689 0.499941 0.470540 
          0.515919 0.487483 0.509307 0.480480 
          0.449007 0.420690 0.441393 0.412555 
          0.459413 0.431780 0.451975 0.423857 
          0.544974 0.518135 0.535081 0.507719 
          0.557096 0.530870 0.547422 0.520709 
          0.491817 0.466109 0.480831 0.454502 
          0.505216 0.480226 0.494528 0.468969 
          0.526858 0.499045 0.520384 0.492206 
          0.539387 0.512255 0.533066 0.505595 
          0.471664 0.444792 0.464422 0.437105 
          0.485619 0.459564 0.478588 0.452128 
          0.416803 0.391158 0.403781 0.377252 
          0.427993 0.403060 0.415322 0.389579 
          0.366384 0.342670 0.351499 0.326707 
          0.379065 0.356196 0.364698 0.340867 
          0.392819 0.365495 0.384093 0.356100 
          0.404673 0.378206 0.396208 0.369135 
          0.338850 0.313058 0.328695 0.302036 
          0.352523 0.327808 0.342773 0.317300 
          0.441117 0.416970 0.428834 0.403953 
          0.456008 0.432693 0.444137 0.420164 
          0.393823 0.371863 0.380014 0.357207 
          0.410434 0.389412 0.397203 0.375441 
          0.418529 0.392996 0.410350 0.384274 
          0.434195 0.409640 0.426317 0.401281 
          0.368346 0.344767 0.359026 0.334791 
          0.386054 0.363626 0.377172 0.354182 
          0.951217 0.927715 0.933108 0.909138 
          0.960249 0.936974 0.942314 0.918585 
          0.904682 0.882156 0.885623 0.862598 
          0.914175 0.891888 0.895317 0.872549 
          0.915708 0.891270 0.899057 0.874154 
          0.925087 0.900904 0.908608 0.883975 
          0.867270 0.843745 0.849671 0.825645 
          0.877168 0.853915 0.859771 0.836035 
          0.970205 0.947174 0.952457 0.928987 
          0.981055 0.958286 0.963507 0.940313 
          0.924627 0.902598 0.905987 0.883493 
          0.936006 0.914251 0.917597 0.895395 
          0.935417 0.911508 0.919124 0.894779 
          0.946666 0.923049 0.930570 0.906533 
          0.888055 0.865096 0.870876 0.847451 
          0.899897 0.877247 0.882948 0.859852 
          0.860174 0.838782 0.840105 0.818188 
          0.870153 0.849011 0.850319 0.828672 
          0.818023 0.797949 0.796894 0.776273 
          0.828510 0.808696 0.807654 0.787316 
          0.820736 0.798287 0.802116 0.779131 
          0.831188 0.809029 0.812808 0.790134 
          0.776447 0.755269 0.756738 0.734992 
          0.787487 0.766613 0.768062 0.746646 
          0.881127 0.860255 0.861546 0.840188 
          0.893060 0.872474 0.873747 0.852695 
          0.840028 0.820492 0.819466 0.799428 
          0.852537 0.833294 0.832283 0.812562 
          0.842669 0.820821 0.824545 0.802203 
          0.855140 0.833618 0.837286 0.815292 
          0.799596 0.779047 0.780473 0.759407 
          0.812728 0.792519 0.793920 0.773221 
          0.883199 0.857836 0.868176 0.842361 
          0.892920 0.867841 0.878063 0.852548 
          0.832873 0.808348 0.816925 0.791906 
          0.843174 0.818958 0.827425 0.802733 
          0.854033 0.827777 0.840814 0.814132 
          0.864082 0.838141 0.851019 0.824667 
          0.801879 0.776375 0.787785 0.761810 
          0.812573 0.787416 0.798668 0.773059 
          0.903617 0.878844 0.888940 0.863745 
          0.915258 0.890808 0.900770 0.875916 
          0.854495 0.830608 0.838959 0.814616 
          0.866795 0.843257 0.851483 0.827509 
          0.875132 0.849529 0.862237 0.836238 
          0.887146 0.861900 0.874428 0.848803 
          0.824314 0.799526 0.810611 0.785391 
          0.837058 0.812659 0.823567 0.798755 
          0.784300 0.760777 0.767344 0.743284 
          0.795231 0.772041 0.778513 0.754809 
          0.737828 0.715507 0.719777 0.696879 
          0.749437 0.727472 0.731673 0.709158 
          0.751305 0.726715 0.736244 0.711133 
          0.762709 0.738498 0.747878 0.723171 
          0.702653 0.679178 0.686526 0.662479 
          0.714834 0.691772 0.698987 0.675385 
          0.807225 0.784389 0.790760 0.767435 
          0.820234 0.797771 0.804036 0.781107 
          0.762151 0.740564 0.744690 0.722582 
          0.775916 0.754723 0.758772 0.737086 
          0.775206 0.751398 0.760618 0.736339 
          0.788743 0.765356 0.774411 0.750577 
          0.728153 0.705526 0.712602 0.689466 
          0.742548 0.720374 0.727306 0.704652 
          0.992771 0.970276 0.975434 0.952530 
          1.005322 0.983115 0.988205 0.965604 
          0.948278 0.926812 0.930112 0.908216 
          0.961410 0.940244 0.943497 0.921919 
          0.958802 0.935491 0.942913 0.919199 
          0.971792 0.948800 0.956119 0.932741 
          0.912655 0.890330 0.895948 0.873196 
          0.926292 0.904304 0.909835 0.887439 
          1.018677 0.996768 1.001789 0.979501 
          1.032806 1.011202 1.016152 0.994187 
          0.975367 0.954510 0.957715 0.936465 
          0.990114 0.969574 0.972729 0.951814 
          0.985602 0.962940 0.970152 0.947120 
          1.000198 0.977874 0.984976 0.962300 
          0.940770 0.919128 0.924571 0.902541 
          0.956051 0.934763 0.940115 0.918458 
          0.905915 0.885627 0.886881 0.866148 
          0.919652 0.899674 0.900909 0.880506 
          0.865993 0.847056 0.846062 0.826669 
          0.880353 0.861732 0.860755 0.841701 
          0.868556 0.847374 0.850983 0.829353 
          0.882874 0.862045 0.865592 0.844337 
          0.826832 0.806977 0.808353 0.788032 
          0.841861 0.822369 0.823719 0.803787 
          0.934233 0.914574 0.915788 0.895725 
          0.949618 0.930285 0.931479 0.911760 
          0.895574 0.877276 0.876316 0.857608 
          0.911613 0.893643 0.892701 0.874343 
          0.898052 0.877583 0.881068 0.860195 
          0.914047 0.893945 0.897366 0.876881 
          0.857765 0.838642 0.839967 0.820430 
          0.874497 0.855749 0.857046 0.837907 
          0.927805 0.903694 0.913516 0.889018 
          0.941222 0.917465 0.927140 0.903012 
          0.880033 0.856859 0.864956 0.841366 
          0.894168 0.871370 0.879333 0.856139 
          0.900085 0.875212 0.887553 0.862318 
          0.913910 0.889423 0.901570 0.876738 
          0.850759 0.826764 0.837488 0.813102 
          0.865372 0.841794 0.852329 0.828380 
          0.955474 0.932080 0.941605 0.917858 
          0.970523 0.947501 0.956872 0.933513 
          0.909158 0.886745 0.894571 0.871783 
          0.924961 0.902940 0.910627 0.888251 
          0.928581 0.904492 0.916438 0.892021 
          0.944059 0.920375 0.932118 0.908122 
          0.880852 0.857700 0.868042 0.844538 
          0.897154 0.874433 0.884579 0.861527 
          0.834211 0.812135 0.818290 0.795772 
          0.849109 0.827430 0.833472 0.811376 
          0.790677 0.769891 0.773861 0.752610 
          0.806380 0.786009 0.789898 0.769090 
          0.803269 0.780318 0.789200 0.765827 
          0.818730 0.796225 0.804932 0.782029 
          0.757960 0.736250 0.743034 0.720874 
          0.774326 0.753088 0.759722 0.738064 